data_78721-ICSD
#?2009 by Fachinformationszentrum Karlsruhe, and the U.S. Secretary of 
#Commerce on behalf of the United States.  All rights reserved.
_database_code_ICSD                78721
_audit_creation_date               1997/05/13
_chemical_name_systematic          'Dilithium Ruthenium(IV) Oxide'
_chemical_formula_structural       'Li2 Ru O3'
_chemical_formula_sum              'Li2 O3 Ru1'
_publ_section_title
;
Structure and lithium deintercalation of Li2-x Ru O3
;
loop_
_citation_id
_citation_journal_abbrev
_citation_year
_citation_journal_volume
_citation_page_first
_citation_page_last
_citation_journal_id_ASTM
primary 'Solid State Ionics' 1995 82 25 31 SSIOD3
_publ_author_name
;
Kobayashi, H.;Kanno, R.;Kawamoto, Y.;Tabuchi, M.;Nakamura, O.;Tanako, 
M.
;
_cell_length_a                     4.9230(3)
_cell_length_b                     8.7746(5)
_cell_length_c                     9.8776(6)
_cell_angle_alpha                  90.
_cell_angle_beta                   100.073(4)
_cell_angle_gamma                  90.
_cell_volume                       420.11
_cell_formula_units_Z              8
_symmetry_space_group_name_H-M     'C 1 2/c 1'
_symmetry_Int_Tables_number        15
_refine_ls_R_factor_all            .0404
loop_
_symmetry_equiv_pos_site_id
_symmetry_equiv_pos_as_xyz
  1	'x, -y, z+.5'
  2	'-x, -y, -z'
  3	'-x, y, -z+.5'
  4	'x, y, z'
  5	'x+.5, -y+.5, z+.5'
  6	'-x+.5, -y+.5, -z'
  7	'-x+.5, y+.5, -z+.5'
  8	'x+.5, y+.5, z'
loop_
_atom_type_symbol
_atom_type_oxidation_number
Li1+	1
O2-	-2
Ru4+	4
loop_
_atom_site_label
_atom_site_type_symbol
_atom_site_symmetry_multiplicity
_atom_site_Wyckoff_symbol
_atom_site_fract_x
_atom_site_fract_y
_atom_site_fract_z
_atom_site_occupancy
_atom_site_attached_hydrogens
_atom_site_U_iso_or_equiv
Ru1 Ru4+ 8 f 0.2354(14) 0.0772(4) 0.0004(8) 1. 0 0.01(1) 
Li1 Li1+ 4 d 0.25 0.25 0.5 1. 0 0.01(1) 
Li2 Li1+ 4 e 0 0.07(2) 0.25 1. 0 0.01(1) 
Li3 Li1+ 4 e 0 0.389(18) 0.25 1. 0 0.01(1) 
Li4 Li1+ 4 e 0 0.799(14) 0.25 1. 0 0.01(1) 
O1 O2- 8 f 0.135(5) 0.251(11) 0.118(2) 1. 0 0.01(1) 
O2 O2- 8 f 0.122(7) 0.576(9) 0.120(4) 1. 0 0.01(1) 
O3 O2- 8 f 0.118(7) 0.907(9) 0.117(4) 1. 0 0.01(1) 

#End of data_78721-ICSD


