data_200155-ICSD
#?2009 by Fachinformationszentrum Karlsruhe, and the U.S. Secretary of 
#Commerce on behalf of the United States.  All rights reserved.
_database_code_ICSD                200155
_audit_creation_date               1980/01/01
_audit_update_record               1999/01/19
_chemical_name_systematic          'Lithium Iron Phosphate(V)'
_chemical_formula_structural       'Li Fe (P O4)'
_chemical_formula_sum              'Fe1 Li1 O4 P1'
_chemical_name_mineral             Triphylite
_publ_section_title
;
The crystal structure of a synthetic triphylite Li Fe (P O4)
;
loop_
_citation_id
_citation_journal_abbrev
_citation_year
_citation_journal_volume
_citation_page_first
_citation_page_last
_citation_journal_id_ASTM
primary 'Doklady Akademii Nauk SSSR' 1977 235 93 95 DANKAS
_publ_author_name
;
Yakubovich, O.V.;Simonov, M.A.;Belov, N.V.
;
_cell_length_a                     10.334(2)
_cell_length_b                     6.010(2)
_cell_length_c                     4.693(1)
_cell_angle_alpha                  90.
_cell_angle_beta                   90.
_cell_angle_gamma                  90.
_cell_volume                       291.47
_cell_formula_units_Z              4
_symmetry_space_group_name_H-M     'P n m a'
_symmetry_Int_Tables_number        62
_refine_ls_R_factor_all            .032
loop_
_symmetry_equiv_pos_site_id
_symmetry_equiv_pos_as_xyz
  1	'x+.5, y, -z+.5'
  2	'x, -y+.5, z'
  3	'-x+.5, y+.5, z+.5'
  4	'-x, -y, -z'
  5	'-x+.5, -y, z+.5'
  6	'-x, y+.5, -z'
  7	'x+.5, -y+.5, -z+.5'
  8	'x, y, z'
loop_
_atom_type_symbol
_atom_type_oxidation_number
Fe2+	2
Li1+	1
O2-	-2
P5+	5
loop_
_atom_site_label
_atom_site_type_symbol
_atom_site_symmetry_multiplicity
_atom_site_Wyckoff_symbol
_atom_site_fract_x
_atom_site_fract_y
_atom_site_fract_z
_atom_site_occupancy
_atom_site_attached_hydrogens
Fe1 Fe2+ 4 c 0.28225(5) 0.25 0.97459(2) 1. 0 
Li1 Li1+ 4 a 0 0 0 1. 0 
P1 P5+ 4 c 0.09485(9) 0.25 0.4180(2) 1. 0 
O1 O2- 4 c 0.0965(3) 0.25 0.7428(2) 1. 0 
O2 O2- 4 c 0.4570(3) 0.25 0.2054(6) 1. 0 
O3 O2- 8 d 0.1655(2) 0.0462(3) 0.2854(4) 1. 0 

loop_
_atom_site_aniso_label
_atom_site_aniso_type_symbol
_atom_site_aniso_B_11
_atom_site_aniso_B_22
_atom_site_aniso_B_33
_atom_site_aniso_B_12
_atom_site_aniso_B_13
_atom_site_aniso_B_23
Fe1 Fe2+ 0.34(1) 0.43(1) 0.46(1) 0 -.02(1) 0
Li1 Li1+ 1.7(3) 1.4(3) 1.1(3) 0.2(3) 0.0(2) 0.5(3)
P1 P5+ 0.34(3) 0.48(3) 0.27(3) 0 0.02(2) 0
O1 O2- 0.72(9) 1.01(9) 0.28(7) 0 0.00(6) 0
O2 O2- 0.36(8) 1.08(9) 0.49(8) 0 0.05(5) 0
O3 O2- 0.69(6) 0.54(5) 0.61(6) 0.16(5) 0.10(4) 0.05(5)
#End of data_200155-ICSD


